<?xml version="1.0" encoding="UTF-8"?>

<!-- generated on 2026-01-18T19:36:10.938293+01:00 by Eclipse SUMO GUI 1.25.0
<sumoConfiguration xmlns:xsi="http://www.w3.org/2001/XMLSchema-instance" xsi:noNamespaceSchemaLocation="http://sumo.dlr.de/xsd/sumoConfiguration.xsd">

    <input>
        <net-file value="SumoConfig/osm.net.xml.gz"/>
        <route-files value="SumoConfig/osm.passenger.trips.xml"/>
        <additional-files value="SumoConfig/output.add.xml"/>
    </input>

    <output>
        <tripinfo-output value="SumoConfig/tripinfos.xml"/>
        <statistic-output value="SumoConfig/stats.xml"/>
    </output>

    <processing>
        <ignore-route-errors value="true"/>
        <tls.actuated.jam-threshold value="30"/>
    </processing>

    <routing>
        <device.rerouting.adaptation-steps value="18"/>
        <device.rerouting.adaptation-interval value="10"/>
    </routing>

    <report>
        <verbose value="true"/>
        <duration-log.statistics value="true"/>
        <no-step-log value="true"/>
    </report>

    <traci_server>
        <remote-port value="58359"/>
    </traci_server>

    <gui_only>
        <gui-settings-file value="SumoConfig/osm.view.xml"/>
        <start value="true"/>
    </gui_only>

</sumoConfiguration>
-->

<meandata xmlns:xsi="http://www.w3.org/2001/XMLSchema-instance" xsi:noNamespaceSchemaLocation="http://sumo.dlr.de/xsd/meandata_file.xsd">
    <interval begin="0.00" end="18.00" id="wizard_example">
        <edge id="-1423265551#1" sampledSeconds="0.00" departed="0" arrived="0" entered="0" left="0" laneChangedFrom="0" laneChangedTo="0"/>
        <edge id="-1423265552#1" sampledSeconds="0.00" departed="0" arrived="0" entered="0" left="0" laneChangedFrom="0" laneChangedTo="0"/>
        <edge id="-292429056" sampledSeconds="15.00" traveltime="26.77" overlapTraveltime="27.51" density="4.61" overlapDensity="4.61" laneDensity="4.61" occupancy="2.12" waitingTime="0.00" timeLoss="2.97" speed="6.75" speedRelative="0.81" departed="1" arrived="0" entered="0" left="0" laneChangedFrom="0" laneChangedTo="0" flow="112.05"/>
        <edge id="-4588220#2" sampledSeconds="35.48" traveltime="13.07" overlapTraveltime="14.20" density="20.66" overlapDensity="21.62" laneDensity="20.66" occupancy="9.55" waitingTime="2.00" timeLoss="17.01" speed="6.77" speedRelative="0.49" departed="3" arrived="0" entered="1" left="1" laneChangedFrom="0" laneChangedTo="0" flow="503.64"/>
        <edge id="1110748916" sampledSeconds="23.94" traveltime="13.07" overlapTraveltime="14.26" density="15.37" overlapDensity="16.36" laneDensity="15.37" occupancy="7.27" waitingTime="3.00" timeLoss="13.76" speed="6.05" speedRelative="0.44" departed="2" arrived="0" entered="0" left="1" laneChangedFrom="0" laneChangedTo="0" flow="334.74"/>
        <edge id="1423265551#2" sampledSeconds="21.00" traveltime="33.72" overlapTraveltime="34.65" density="6.46" overlapDensity="6.46" laneDensity="6.46" occupancy="2.75" waitingTime="0.00" timeLoss="5.68" speed="5.36" speedRelative="0.64" departed="3" arrived="0" entered="0" left="0" laneChangedFrom="0" laneChangedTo="0" flow="124.55"/>
        <edge id="1423265552#2" sampledSeconds="17.90" traveltime="9.39" overlapTraveltime="10.53" density="9.93" overlapDensity="10.89" laneDensity="9.93" occupancy="4.75" waitingTime="0.00" timeLoss="6.01" speed="9.15" speedRelative="0.66" departed="1" arrived="0" entered="1" left="1" laneChangedFrom="0" laneChangedTo="0" flow="327.21"/>
        <edge id="1423271274" sampledSeconds="35.50" traveltime="12.90" overlapTraveltime="13.72" density="23.47" overlapDensity="24.05" laneDensity="23.47" occupancy="10.88" waitingTime="0.00" timeLoss="8.77" speed="6.34" speedRelative="0.76" departed="4" arrived="0" entered="0" left="1" laneChangedFrom="0" laneChangedTo="0" flow="535.81"/>
    </interval>
</meandata>
