<?xml version="1.0" encoding="UTF-8"?>

<!-- generated on 2026-01-18T16:22:28.554888+01:00 by Eclipse SUMO GUI 1.25.0
<sumoConfiguration xmlns:xsi="http://www.w3.org/2001/XMLSchema-instance" xsi:noNamespaceSchemaLocation="http://sumo.dlr.de/xsd/sumoConfiguration.xsd">

    <input>
        <net-file value="SumoConfig/osm.net.xml.gz"/>
        <route-files value="SumoConfig/osm.passenger.trips.xml"/>
        <additional-files value="SumoConfig/output.add.xml"/>
    </input>

    <output>
        <tripinfo-output value="SumoConfig/tripinfos.xml"/>
        <statistic-output value="SumoConfig/stats.xml"/>
    </output>

    <processing>
        <ignore-route-errors value="true"/>
        <tls.actuated.jam-threshold value="30"/>
    </processing>

    <routing>
        <device.rerouting.adaptation-steps value="18"/>
        <device.rerouting.adaptation-interval value="10"/>
    </routing>

    <report>
        <verbose value="true"/>
        <duration-log.statistics value="true"/>
        <no-step-log value="true"/>
    </report>

    <traci_server>
        <remote-port value="55845"/>
    </traci_server>

    <gui_only>
        <gui-settings-file value="SumoConfig/osm.view.xml"/>
        <start value="true"/>
    </gui_only>

</sumoConfiguration>
-->

<meandata xmlns:xsi="http://www.w3.org/2001/XMLSchema-instance" xsi:noNamespaceSchemaLocation="http://sumo.dlr.de/xsd/meandata_file.xsd">
    <interval begin="0.00" end="19.00" id="wizard_example">
        <edge id="-1423265551#1" sampledSeconds="47.45" traveltime="14.03" overlapTraveltime="15.29" density="29.11" overlapDensity="30.45" laneDensity="29.11" occupancy="13.61" waitingTime="0.00" timeLoss="11.49" speed="5.69" speedRelative="0.68" departed="4" arrived="0" entered="0" left="1" laneChangedFrom="0" laneChangedTo="0" flow="596.35"/>
        <edge id="-1423265552#1" sampledSeconds="0.00" departed="0" arrived="0" entered="0" left="0" laneChangedFrom="0" laneChangedTo="0"/>
        <edge id="-292429056" sampledSeconds="12.00" traveltime="26.85" overlapTraveltime="27.60" density="3.50" overlapDensity="3.50" laneDensity="3.50" occupancy="1.58" waitingTime="0.00" timeLoss="2.73" speed="6.73" speedRelative="0.81" departed="1" arrived="0" entered="0" left="0" laneChangedFrom="0" laneChangedTo="0" flow="84.67"/>
        <edge id="-4588220#2" sampledSeconds="32.13" traveltime="13.59" overlapTraveltime="14.63" density="17.75" overlapDensity="18.55" laneDensity="17.75" occupancy="8.20" waitingTime="2.00" timeLoss="16.54" speed="6.57" speedRelative="0.47" departed="3" arrived="0" entered="0" left="1" laneChangedFrom="0" laneChangedTo="0" flow="419.94"/>
        <edge id="1110748916" sampledSeconds="20.05" traveltime="12.26" overlapTraveltime="13.46" density="12.07" overlapDensity="12.98" laneDensity="12.07" occupancy="5.57" waitingTime="1.00" timeLoss="11.41" speed="6.41" speedRelative="0.46" departed="2" arrived="0" entered="0" left="1" laneChangedFrom="0" laneChangedTo="0" flow="278.34"/>
        <edge id="1423265551#2" sampledSeconds="23.00" traveltime="26.98" overlapTraveltime="27.73" density="6.70" overlapDensity="6.70" laneDensity="6.70" occupancy="3.07" waitingTime="0.00" timeLoss="4.43" speed="6.70" speedRelative="0.80" departed="2" arrived="0" entered="0" left="0" laneChangedFrom="0" laneChangedTo="0" flow="161.52"/>
        <edge id="1423265552#2" sampledSeconds="6.33" traveltime="7.39" overlapTraveltime="7.79" density="3.65" overlapDensity="3.65" laneDensity="3.65" occupancy="1.74" waitingTime="0.00" timeLoss="1.01" speed="12.37" speedRelative="0.89" departed="0" arrived="0" entered="1" left="0" laneChangedFrom="0" laneChangedTo="0" flow="162.48"/>
        <edge id="1423271274" sampledSeconds="20.16" traveltime="11.69" overlapTraveltime="12.45" density="12.44" overlapDensity="12.94" laneDensity="12.44" occupancy="5.70" waitingTime="0.00" timeLoss="4.23" speed="6.99" speedRelative="0.84" departed="2" arrived="0" entered="1" left="1" laneChangedFrom="0" laneChangedTo="0" flow="313.09"/>
    </interval>
</meandata>
