<?xml version="1.0" encoding="UTF-8"?>

<!-- generated on 2026-01-18T12:41:07.599624+01:00 by Eclipse SUMO GUI 1.25.0
<sumoConfiguration xmlns:xsi="http://www.w3.org/2001/XMLSchema-instance" xsi:noNamespaceSchemaLocation="http://sumo.dlr.de/xsd/sumoConfiguration.xsd">

    <input>
        <net-file value="SumoConfig/osm.net.xml.gz"/>
        <route-files value="SumoConfig/osm.passenger.trips.xml"/>
        <additional-files value="SumoConfig/output.add.xml"/>
    </input>

    <output>
        <tripinfo-output value="SumoConfig/tripinfos.xml"/>
        <statistic-output value="SumoConfig/stats.xml"/>
    </output>

    <processing>
        <ignore-route-errors value="true"/>
        <tls.actuated.jam-threshold value="30"/>
    </processing>

    <routing>
        <device.rerouting.adaptation-steps value="18"/>
        <device.rerouting.adaptation-interval value="10"/>
    </routing>

    <report>
        <verbose value="true"/>
        <duration-log.statistics value="true"/>
        <no-step-log value="true"/>
    </report>

    <traci_server>
        <remote-port value="54949"/>
    </traci_server>

    <gui_only>
        <gui-settings-file value="SumoConfig/osm.view.xml"/>
        <start value="true"/>
    </gui_only>

</sumoConfiguration>
-->

<tripinfos xmlns:xsi="http://www.w3.org/2001/XMLSchema-instance" xsi:noNamespaceSchemaLocation="http://sumo.dlr.de/xsd/tripinfo_file.xsd">
    <tripinfo id="veh0" depart="0.00" departLane="1423271274_0" departPos="5.10" departSpeed="8.83" departDelay="0.00" arrival="24.00" arrivalLane="1423265552#2_0" arrivalPos="91.33" arrivalSpeed="6.64" duration="24.00" routeLength="182.48" waitingTime="0.00" waitingCount="0" stopTime="0.00" timeLoss="7.43" rerouteNo="0" devices="tripinfo_veh0 routing_veh0" vType="veh_passenger" speedFactor="1.06" vaporized=""/>
    <tripinfo id="user_car_2" depart="1.00" departLane="1423271274_0" departPos="0.00" departSpeed="0.00" departDelay="0.00" arrival="27.00" arrivalLane="-1423265551#1_0" arrivalPos="82.01" arrivalSpeed="7.51" duration="26.00" routeLength="168.69" waitingTime="0.00" waitingCount="0" stopTime="0.00" timeLoss="4.82" rerouteNo="1" devices="tripinfo_user_car_2" vType="DEFAULT_VEHTYPE" speedFactor="1.01" vaporized=""/>
    <tripinfo id="user_car_4" depart="1.00" departLane="1110748916_0" departPos="0.00" departSpeed="0.00" departDelay="0.00" arrival="31.00" arrivalLane="-1423265552#1_0" arrivalPos="81.27" arrivalSpeed="14.15" duration="30.00" routeLength="167.22" waitingTime="8.00" waitingCount="1" stopTime="0.00" timeLoss="16.27" rerouteNo="1" devices="tripinfo_user_car_4" vType="DEFAULT_VEHTYPE" speedFactor="1.03" vaporized=""/>
    <tripinfo id="user_car_29" depart="7.00" departLane="1110748916_0" departPos="0.00" departSpeed="0.00" departDelay="6.00" arrival="41.00" arrivalLane="-1423265551#1_0" arrivalPos="82.01" arrivalSpeed="6.75" duration="34.00" routeLength="177.50" waitingTime="5.00" waitingCount="1" stopTime="0.00" timeLoss="14.54" rerouteNo="1" devices="tripinfo_user_car_29" vType="DEFAULT_VEHTYPE" speedFactor="0.93" vaporized=""/>
    <tripinfo id="user_car_35" depart="23.00" departLane="1110748916_0" departPos="0.00" departSpeed="0.00" departDelay="22.00" arrival="47.00" arrivalLane="-1423265552#1_0" arrivalPos="81.27" arrivalSpeed="13.91" duration="24.00" routeLength="167.22" waitingTime="0.00" waitingCount="0" stopTime="0.00" timeLoss="11.40" rerouteNo="1" devices="tripinfo_user_car_35" vType="DEFAULT_VEHTYPE" speedFactor="1.02" vaporized=""/>
    <tripinfo id="user_car_48" depart="31.00" departLane="1110748916_0" departPos="0.00" departSpeed="0.00" departDelay="30.00" arrival="53.00" arrivalLane="1423265552#2_0" arrivalPos="91.33" arrivalSpeed="7.16" duration="22.00" routeLength="187.05" waitingTime="0.00" waitingCount="0" stopTime="0.00" timeLoss="6.56" rerouteNo="1" devices="tripinfo_user_car_48" vType="DEFAULT_VEHTYPE" speedFactor="0.88" vaporized=""/>
    <tripinfo id="user_car_5" depart="4.00" departLane="-4588220#2_0" departPos="0.00" departSpeed="0.00" departDelay="3.00" arrival="57.00" arrivalLane="1423265552#2_0" arrivalPos="91.33" arrivalSpeed="10.57" duration="53.00" routeLength="187.15" waitingTime="24.00" waitingCount="2" stopTime="0.00" timeLoss="35.61" rerouteNo="1" devices="tripinfo_user_car_5" vType="DEFAULT_VEHTYPE" speedFactor="0.83" vaporized=""/>
    <tripinfo id="user_car_62" depart="25.00" departLane="-1423265552#1_0" departPos="0.00" departSpeed="0.00" departDelay="24.00" arrival="59.00" arrivalLane="-1423265551#1_0" arrivalPos="82.01" arrivalSpeed="8.16" duration="34.00" routeLength="263.44" waitingTime="0.00" waitingCount="0" stopTime="0.00" timeLoss="9.51" rerouteNo="1" devices="tripinfo_user_car_62" vType="DEFAULT_VEHTYPE" speedFactor="1.02" vaporized=""/>
    <tripinfo id="user_car_77" depart="47.00" departLane="-1423265552#1_0" departPos="0.00" departSpeed="0.00" departDelay="46.00" arrival="68.00" arrivalLane="1110748916_0" arrivalPos="81.28" arrivalSpeed="12.71" duration="21.00" routeLength="167.22" waitingTime="0.00" waitingCount="0" stopTime="0.00" timeLoss="7.20" rerouteNo="1" devices="tripinfo_user_car_77" vType="DEFAULT_VEHTYPE" speedFactor="0.98" vaporized=""/>
    <tripinfo id="user_car_85" depart="50.00" departLane="1110748916_0" departPos="0.00" departSpeed="0.00" departDelay="49.00" arrival="71.00" arrivalLane="-1423265552#1_0" arrivalPos="81.27" arrivalSpeed="12.75" duration="21.00" routeLength="167.22" waitingTime="0.00" waitingCount="0" stopTime="0.00" timeLoss="7.17" rerouteNo="1" devices="tripinfo_user_car_85" vType="DEFAULT_VEHTYPE" speedFactor="0.98" vaporized=""/>
    <tripinfo id="user_car_9" depart="7.00" departLane="-4588220#2_0" departPos="0.00" departSpeed="0.00" departDelay="6.00" arrival="72.00" arrivalLane="1110748916_0" arrivalPos="81.28" arrivalSpeed="11.83" duration="65.00" routeLength="272.81" waitingTime="22.00" waitingCount="2" stopTime="0.00" timeLoss="41.12" rerouteNo="1" devices="tripinfo_user_car_9" vType="DEFAULT_VEHTYPE" speedFactor="0.86" vaporized=""/>
    <tripinfo id="user_car_90" depart="53.00" departLane="1110748916_0" departPos="0.00" departSpeed="0.00" departDelay="52.00" arrival="74.00" arrivalLane="-1423265552#1_0" arrivalPos="81.27" arrivalSpeed="12.86" duration="21.00" routeLength="167.22" waitingTime="0.00" waitingCount="0" stopTime="0.00" timeLoss="7.99" rerouteNo="1" devices="tripinfo_user_car_90" vType="DEFAULT_VEHTYPE" speedFactor="1.02" vaporized=""/>
    <tripinfo id="user_car_24" depart="4.00" departLane="1423265552#2_0" departPos="0.00" departSpeed="0.00" departDelay="3.00" arrival="76.00" arrivalLane="-1423265551#1_0" arrivalPos="82.01" arrivalSpeed="6.57" duration="72.00" routeLength="278.26" waitingTime="20.00" waitingCount="3" stopTime="0.00" timeLoss="40.48" rerouteNo="1" devices="tripinfo_user_car_24" vType="DEFAULT_VEHTYPE" speedFactor="0.83" vaporized=""/>
    <tripinfo id="user_car_74" depart="28.00" departLane="-1423265552#1_0" departPos="0.00" departSpeed="0.00" departDelay="27.00" arrival="77.00" arrivalLane="1423265551#2_0" arrivalPos="180.65" arrivalSpeed="7.65" duration="49.00" routeLength="356.97" waitingTime="0.00" waitingCount="0" stopTime="0.00" timeLoss="11.13" rerouteNo="1" devices="tripinfo_user_car_74" vType="DEFAULT_VEHTYPE" speedFactor="0.96" vaporized=""/>
    <tripinfo id="user_car_31" depart="7.00" departLane="1423265552#2_0" departPos="0.00" departSpeed="0.00" departDelay="6.00" arrival="78.00" arrivalLane="-1423265551#1_0" arrivalPos="82.01" arrivalSpeed="9.33" duration="71.00" routeLength="278.26" waitingTime="17.00" waitingCount="2" stopTime="0.00" timeLoss="47.80" rerouteNo="1" devices="tripinfo_user_car_31" vType="DEFAULT_VEHTYPE" speedFactor="1.15" vaporized=""/>
    <tripinfo id="user_car_12" depart="24.00" departLane="-4588220#2_0" departPos="0.00" departSpeed="0.00" departDelay="23.00" arrival="80.00" arrivalLane="-1423265551#1_0" arrivalPos="82.01" arrivalSpeed="7.49" duration="56.00" routeLength="182.26" waitingTime="16.00" waitingCount="2" stopTime="0.00" timeLoss="38.49" rerouteNo="1" devices="tripinfo_user_car_12" vType="DEFAULT_VEHTYPE" speedFactor="1.05" vaporized=""/>
    <tripinfo id="user_car_40" depart="28.00" departLane="-4588220#2_0" departPos="0.00" departSpeed="0.00" departDelay="27.00" arrival="82.00" arrivalLane="-1423265551#1_0" arrivalPos="82.01" arrivalSpeed="8.51" duration="54.00" routeLength="182.26" waitingTime="15.00" waitingCount="2" stopTime="0.00" timeLoss="36.08" rerouteNo="1" devices="tripinfo_user_car_40" vType="DEFAULT_VEHTYPE" speedFactor="1.03" vaporized=""/>
    <tripinfo id="user_car_10" depart="4.00" departLane="1423271274_0" departPos="0.00" departSpeed="0.00" departDelay="3.00" arrival="83.00" arrivalLane="-1423265552#1_0" arrivalPos="81.27" arrivalSpeed="14.21" duration="79.00" routeLength="172.31" waitingTime="55.00" waitingCount="1" stopTime="0.00" timeLoss="63.09" rerouteNo="1" devices="tripinfo_user_car_10" vType="DEFAULT_VEHTYPE" speedFactor="1.09" vaporized=""/>
    <tripinfo id="user_car_0" depart="0.00" departLane="-292429056_0" departPos="0.00" departSpeed="0.00" departDelay="0.00" arrival="84.00" arrivalLane="1423265552#2_0" arrivalPos="91.33" arrivalSpeed="14.33" duration="84.00" routeLength="281.02" waitingTime="47.00" waitingCount="1" stopTime="0.00" timeLoss="55.94" rerouteNo="1" devices="tripinfo_user_car_0" vType="DEFAULT_VEHTYPE" speedFactor="1.06" vaporized=""/>
    <tripinfo id="user_car_27" depart="10.00" departLane="1423271274_0" departPos="0.00" departSpeed="0.00" departDelay="9.00" arrival="94.00" arrivalLane="-1423265551#1_0" arrivalPos="82.01" arrivalSpeed="7.04" duration="84.00" routeLength="168.69" waitingTime="53.00" waitingCount="1" stopTime="0.00" timeLoss="61.69" rerouteNo="1" devices="tripinfo_user_car_27" vType="DEFAULT_VEHTYPE" speedFactor="0.95" vaporized=""/>
    <tripinfo id="user_car_13" depart="6.00" departLane="-292429056_0" departPos="0.00" departSpeed="0.00" departDelay="5.00" arrival="96.00" arrivalLane="-1423265551#1_0" arrivalPos="82.01" arrivalSpeed="8.20" duration="90.00" routeLength="277.11" waitingTime="45.00" waitingCount="1" stopTime="0.00" timeLoss="60.14" rerouteNo="1" devices="tripinfo_user_car_13" vType="DEFAULT_VEHTYPE" speedFactor="1.12" vaporized=""/>
</tripinfos>
