<?xml version="1.0" encoding="UTF-8"?>

<!-- generated on 2026-01-18T03:13:38.532425+01:00 by Eclipse SUMO GUI 1.25.0
<sumoConfiguration xmlns:xsi="http://www.w3.org/2001/XMLSchema-instance" xsi:noNamespaceSchemaLocation="http://sumo.dlr.de/xsd/sumoConfiguration.xsd">

    <input>
        <net-file value="SumoConfig/osm.net.xml.gz"/>
        <route-files value="SumoConfig/osm.passenger.trips.xml"/>
        <additional-files value="SumoConfig/output.add.xml"/>
    </input>

    <output>
        <tripinfo-output value="SumoConfig/tripinfos.xml"/>
        <statistic-output value="SumoConfig/stats.xml"/>
    </output>

    <processing>
        <ignore-route-errors value="true"/>
        <tls.actuated.jam-threshold value="30"/>
    </processing>

    <routing>
        <device.rerouting.adaptation-steps value="18"/>
        <device.rerouting.adaptation-interval value="10"/>
    </routing>

    <report>
        <verbose value="true"/>
        <duration-log.statistics value="true"/>
        <no-step-log value="true"/>
    </report>

    <traci_server>
        <remote-port value="64585"/>
    </traci_server>

    <gui_only>
        <gui-settings-file value="SumoConfig/osm.view.xml"/>
        <start value="true"/>
    </gui_only>

</sumoConfiguration>
-->

<tripinfos xmlns:xsi="http://www.w3.org/2001/XMLSchema-instance" xsi:noNamespaceSchemaLocation="http://sumo.dlr.de/xsd/tripinfo_file.xsd">
    <tripinfo id="veh0" depart="0.00" departLane="1423271274_0" departPos="5.10" departSpeed="8.83" departDelay="0.00" arrival="22.00" arrivalLane="1423265552#2_0" arrivalPos="91.33" arrivalSpeed="6.37" duration="22.00" routeLength="182.48" waitingTime="0.00" waitingCount="0" stopTime="0.00" timeLoss="5.45" rerouteNo="0" devices="tripinfo_veh0 routing_veh0" vType="veh_passenger" speedFactor="1.06" vaporized=""/>
    <tripinfo id="user_car_11" depart="0.00" departLane="-1423265552#1_0" departPos="0.00" departSpeed="0.00" departDelay="0.00" arrival="32.00" arrivalLane="1110748916_0" arrivalPos="81.28" arrivalSpeed="7.19" duration="32.00" routeLength="167.22" waitingTime="6.00" waitingCount="1" stopTime="0.00" timeLoss="19.49" rerouteNo="1" devices="tripinfo_user_car_11" vType="DEFAULT_VEHTYPE" speedFactor="1.03" vaporized=""/>
    <tripinfo id="user_car_9" depart="0.00" departLane="-4588220#2_0" departPos="0.00" departSpeed="0.00" departDelay="0.00" arrival="34.00" arrivalLane="-1423265552#1_0" arrivalPos="81.27" arrivalSpeed="11.63" duration="34.00" routeLength="186.86" waitingTime="10.00" waitingCount="1" stopTime="0.00" timeLoss="18.04" rerouteNo="1" devices="tripinfo_user_car_9" vType="DEFAULT_VEHTYPE" speedFactor="0.86" vaporized=""/>
    <tripinfo id="user_car_1" depart="0.00" departLane="1110748916_0" departPos="0.00" departSpeed="0.00" departDelay="0.00" arrival="35.00" arrivalLane="1423265552#2_0" arrivalPos="91.33" arrivalSpeed="12.36" duration="35.00" routeLength="187.05" waitingTime="12.00" waitingCount="1" stopTime="0.00" timeLoss="20.01" rerouteNo="1" devices="tripinfo_user_car_1" vType="DEFAULT_VEHTYPE" speedFactor="0.94" vaporized=""/>
    <tripinfo id="user_car_26" depart="6.00" departLane="-1423265552#1_0" departPos="0.00" departSpeed="0.00" departDelay="6.00" arrival="36.00" arrivalLane="1110748916_0" arrivalPos="81.28" arrivalSpeed="11.74" duration="30.00" routeLength="167.22" waitingTime="1.00" waitingCount="1" stopTime="0.00" timeLoss="15.32" rerouteNo="1" devices="tripinfo_user_car_26" vType="DEFAULT_VEHTYPE" speedFactor="0.92" vaporized=""/>
    <tripinfo id="user_car_8" depart="3.00" departLane="1110748916_0" departPos="0.00" departSpeed="0.00" departDelay="3.00" arrival="37.00" arrivalLane="1423265552#2_0" arrivalPos="91.33" arrivalSpeed="11.90" duration="34.00" routeLength="187.05" waitingTime="10.00" waitingCount="1" stopTime="0.00" timeLoss="19.00" rerouteNo="1" devices="tripinfo_user_car_8" vType="DEFAULT_VEHTYPE" speedFactor="0.94" vaporized=""/>
    <tripinfo id="user_car_22" depart="6.00" departLane="1423265552#2_0" departPos="0.00" departSpeed="0.00" departDelay="6.00" arrival="37.00" arrivalLane="-4588220#2_0" arrivalPos="91.15" arrivalSpeed="7.32" duration="31.00" routeLength="187.15" waitingTime="0.00" waitingCount="0" stopTime="0.00" timeLoss="15.56" rerouteNo="1" devices="tripinfo_user_car_22" vType="DEFAULT_VEHTYPE" speedFactor="0.97" vaporized=""/>
    <tripinfo id="user_car_2" depart="1.00" departLane="1423271274_0" departPos="0.00" departSpeed="0.00" departDelay="1.00" arrival="38.00" arrivalLane="1110748916_0" arrivalPos="81.28" arrivalSpeed="13.47" duration="37.00" routeLength="258.26" waitingTime="0.00" waitingCount="0" stopTime="0.00" timeLoss="12.53" rerouteNo="1" devices="tripinfo_user_car_2" vType="DEFAULT_VEHTYPE" speedFactor="1.01" vaporized=""/>
    <tripinfo id="user_car_0" depart="0.00" departLane="1423265552#2_0" departPos="0.00" departSpeed="0.00" departDelay="0.00" arrival="40.00" arrivalLane="-1423265552#1_0" arrivalPos="81.27" arrivalSpeed="13.91" duration="40.00" routeLength="282.86" waitingTime="5.00" waitingCount="1" stopTime="0.00" timeLoss="19.78" rerouteNo="1" devices="tripinfo_user_car_0" vType="DEFAULT_VEHTYPE" speedFactor="1.06" vaporized=""/>
    <tripinfo id="user_car_14" depart="3.00" departLane="-4588220#2_0" departPos="0.00" departSpeed="0.00" departDelay="3.00" arrival="40.00" arrivalLane="-1423265551#1_0" arrivalPos="82.01" arrivalSpeed="8.18" duration="37.00" routeLength="182.26" waitingTime="9.00" waitingCount="1" stopTime="0.00" timeLoss="18.13" rerouteNo="1" devices="tripinfo_user_car_14" vType="DEFAULT_VEHTYPE" speedFactor="0.99" vaporized=""/>
    <tripinfo id="user_car_28" depart="7.00" departLane="1423271274_0" departPos="0.00" departSpeed="0.00" departDelay="7.00" arrival="41.00" arrivalLane="-4588220#2_0" arrivalPos="91.15" arrivalSpeed="12.27" duration="34.00" routeLength="283.40" waitingTime="0.00" waitingCount="0" stopTime="0.00" timeLoss="10.83" rerouteNo="1" devices="tripinfo_user_car_28" vType="DEFAULT_VEHTYPE" speedFactor="1.13" vaporized=""/>
    <tripinfo id="user_car_15" depart="3.00" departLane="-1423265552#1_0" departPos="0.00" departSpeed="0.00" departDelay="3.00" arrival="43.00" arrivalLane="1423265552#2_0" arrivalPos="91.33" arrivalSpeed="12.65" duration="40.00" routeLength="272.99" waitingTime="3.00" waitingCount="1" stopTime="0.00" timeLoss="17.07" rerouteNo="1" devices="tripinfo_user_car_15" vType="DEFAULT_VEHTYPE" speedFactor="0.93" vaporized=""/>
    <tripinfo id="user_car_13" depart="4.00" departLane="1423271274_0" departPos="0.00" departSpeed="0.00" departDelay="4.00" arrival="46.00" arrivalLane="1423265551#2_0" arrivalPos="180.65" arrivalSpeed="5.74" duration="42.00" routeLength="277.10" waitingTime="0.00" waitingCount="0" stopTime="0.00" timeLoss="12.16" rerouteNo="1" devices="tripinfo_user_car_13" vType="DEFAULT_VEHTYPE" speedFactor="1.12" vaporized=""/>
    <tripinfo id="user_car_27" depart="23.00" departLane="-4588220#2_0" departPos="0.00" departSpeed="0.00" departDelay="23.00" arrival="47.00" arrivalLane="-1423265552#1_0" arrivalPos="81.27" arrivalSpeed="12.59" duration="24.00" routeLength="186.86" waitingTime="0.00" waitingCount="0" stopTime="0.00" timeLoss="8.93" rerouteNo="1" devices="tripinfo_user_car_27" vType="DEFAULT_VEHTYPE" speedFactor="0.95" vaporized=""/>
    <tripinfo id="user_car_21" depart="27.00" departLane="1110748916_0" departPos="0.00" departSpeed="0.00" departDelay="27.00" arrival="50.00" arrivalLane="-1423265552#1_0" arrivalPos="81.27" arrivalSpeed="13.38" duration="23.00" routeLength="167.22" waitingTime="0.00" waitingCount="0" stopTime="0.00" timeLoss="10.42" rerouteNo="1" devices="tripinfo_user_car_21" vType="DEFAULT_VEHTYPE" speedFactor="1.01" vaporized=""/>
    <tripinfo id="user_car_32" depart="30.00" departLane="1110748916_0" departPos="0.00" departSpeed="0.00" departDelay="30.00" arrival="53.00" arrivalLane="1423265552#2_0" arrivalPos="91.33" arrivalSpeed="13.12" duration="23.00" routeLength="187.05" waitingTime="0.00" waitingCount="0" stopTime="0.00" timeLoss="9.20" rerouteNo="1" devices="tripinfo_user_car_32" vType="DEFAULT_VEHTYPE" speedFactor="1.01" vaporized=""/>
    <tripinfo id="user_car_34" depart="31.00" departLane="-4588220#2_0" departPos="0.00" departSpeed="0.00" departDelay="31.00" arrival="62.00" arrivalLane="1423265552#2_0" arrivalPos="91.33" arrivalSpeed="13.43" duration="31.00" routeLength="187.15" waitingTime="6.00" waitingCount="1" stopTime="0.00" timeLoss="16.18" rerouteNo="1" devices="tripinfo_user_car_34" vType="DEFAULT_VEHTYPE" speedFactor="0.99" vaporized=""/>
    <tripinfo id="user_car_41" depart="34.00" departLane="1110748916_0" departPos="0.00" departSpeed="0.00" departDelay="34.00" arrival="73.00" arrivalLane="1423265551#2_0" arrivalPos="180.65" arrivalSpeed="7.25" duration="39.00" routeLength="271.03" waitingTime="0.00" waitingCount="0" stopTime="0.00" timeLoss="7.72" rerouteNo="1" devices="tripinfo_user_car_41" vType="DEFAULT_VEHTYPE" speedFactor="0.96" vaporized=""/>
</tripinfos>
